 Gaussian 16, Revision C.01,
 Gaussian 16:  ES64L-G16RevC.01  3-Jul-2019

 --------------------------
 # m062x/6-31+g(d) opt freq
 --------------------------

 ---
 CO2
 ---
 Symbolic Z-matrix:
 Charge =  0 Multiplicity = 1

 SCF Done:  E(RM062X) =  -188.484194855     A.U. after    9 cycles
 SCF Done:  E(RM062X) =  -188.516028701     A.U. after    9 cycles
 SCF Done:  E(RM062X) =  -188.516038939     A.U. after    7 cycles
 Optimization completed.
    -- Stationary point found.
 Normal termination of Gaussian 16 at Fri Apr 22 11:39:22 2022.

 ---------------------------------------------------------------------
 #N Geom=AllCheck Guess=TCheck SCRF=Check GenChk RM062X/6-31+G(d) Freq
 ---------------------------------------------------------------------

 Structure from the checkpoint file:  "/scratch/global/Gau-25056.chk"
 ---
 CO2
 ---
 Charge =  0 Multiplicity = 1

                         Standard orientation:
 ---------------------------------------------------------------------
 Center     Atomic      Atomic             Coordinates (Angstroms)
 Number     Number       Type             X           Y           Z
 ---------------------------------------------------------------------
      1          6           0        0.000000    0.000000    0.000000
      2          8           0        0.000000    0.000000    1.162802
      3          8           0        0.000000    0.000000   -1.162802
 ---------------------------------------------------------------------

 SCF Done:  E(RM062X) =  -188.516038939     A.U. after    1 cycles

 The electronic state is 1-SGG.
 Alpha  occ. eigenvalues --  -19.73957 -19.73956 -10.75894  -1.30165  -1.25118
 Alpha  occ. eigenvalues --   -0.66469  -0.61234  -0.61099  -0.61099  -0.45117
 Alpha  occ. eigenvalues --   -0.45117
 Alpha virt. eigenvalues --   -0.00186   0.04751   0.04751   0.05387   0.07840
 Alpha virt. eigenvalues --    0.07840   0.16185   0.19655   0.20762   0.20762
 Alpha virt. eigenvalues --    0.25271   0.28220   0.28220   0.32058   0.38382

 Mulliken charges:
               1
     1  C    0.740250
     2  O   -0.370125
     3  O   -0.370125
 Sum of Mulliken charges =  -0.00000

 Dipole moment (field-independent basis, Debye):
    X=             -0.0000    Y=              0.0000    Z=              0.0000  Tot=              0.0000
 Quadrupole moment (field-independent basis, Debye-Ang):
   XX=            -14.8512   YY=            -14.8512   ZZ=            -19.7026
   XY=              0.0000   XZ=              0.0000   YZ=              0.0000

  Exact polarizability:       8.970       0.000       8.970      -0.000       0.000      25.514
 Approx polarizability:       9.702      -0.000       9.702      -0.000      -0.000      36.826

                      1                      2                      3
                     PIU                    PIU                    SGG
 Frequencies --    669.8954               669.8954              1411.2316
 Red. masses --     12.8774                12.8774                15.9949
 Frc consts  --      3.4048                 3.4048                18.7685
 IR Inten    --     38.1994                38.1994                 0.0000

                      4
                     SGU
 Frequencies --   2460.4467
 Red. masses --     12.8774
 Frc consts  --     45.9309
 IR Inten    --    788.2024

 - Thermochemistry -
 -------------------
 Temperature   298.150 Kelvin.  Pressure   1.00000 Atm.
 Atom     1 has atomic number  6 and mass  12.00000

 Molecular mass:    43.98983 amu.
 Principal axes and moments of inertia in atomic units:
                           1         2         3
     Eigenvalues --     0.00000 154.46187 154.46187
           X           -0.00000   1.00000  -0.00000
           Y            0.00000   0.00000   1.00000
           Z            1.00000   0.00000  -0.00000
 This molecule is a prolate symmetric top.
 Rotational symmetry number  2.
 Rotational temperature (Kelvin)      0.56075
 Rotational constant (GHZ):          11.684056
 Zero-point vibrational energy      31171.5 (Joules/Mol)
                                    7.45017 (Kcal/Mol)
 Vibrational temperatures:    963.83   963.83  2030.45  3540.03
          (Kelvin)

 Zero-point correction=                           0.011873 (Hartree/Particle)
 Thermal correction to Energy=                    0.014491
 Thermal correction to Enthalpy=                  0.015435
 Thermal correction to Gibbs Free Energy=        -0.008824
 Sum of electronic and zero-point Energies=           -188.504166
 Sum of electronic and thermal Energies=              -188.501548
 Sum of electronic and thermal Enthalpies=            -188.500604
 Sum of electronic and thermal Free Energies=         -188.524862

                     E (Thermal)             CV                S
                      KCal/Mol        Cal/Mol-Kelvin    Cal/Mol-Kelvin
 Total                    9.093              6.848             51.057
 Electronic               0.000              0.000              0.000
 Translational            0.889              2.981             37.270
 Rotational               0.592              1.987             13.082
 Vibrational              7.612              1.880              0.705

 Optimization completed.
    -- Stationary point found.
 Normal termination of Gaussian 16 at Fri Apr 22 11:39:30 2022.
