 Gaussian 16, Revision C.01,
 Gaussian 16:  ES64L-G16RevC.01  3-Jul-2019

 --------------------------
 # m062x/6-31+g(d) opt freq
 --------------------------

 -----
 water
 -----
 Symbolic Z-matrix:
 Charge =  0 Multiplicity = 1

 SCF Done:  E(RM062X) =  -76.3834021880     A.U. after   12 cycles
 SCF Done:  E(RM062X) =  -76.3837599506     A.U. after   11 cycles
 SCF Done:  E(RM062X) =  -76.3837661896     A.U. after    7 cycles
 Optimization completed.
    -- Stationary point found.
 Normal termination of Gaussian 16 at Fri Apr 22 11:40:01 2022.

 ---------------------------------------------------------------------
 #N Geom=AllCheck Guess=TCheck SCRF=Check GenChk RM062X/6-31+G(d) Freq
 ---------------------------------------------------------------------

 Structure from the checkpoint file:  "/scratch/global/Gau-84253.chk"
 -----
 water
 -----
 Charge =  0 Multiplicity = 1

                         Standard orientation:
 ---------------------------------------------------------------------
 Center     Atomic      Atomic             Coordinates (Angstroms)
 Number     Number       Type             X           Y           Z
 ---------------------------------------------------------------------
      1          8           0        0.000000    0.000000    0.116487
      2          1           0       -0.000000    0.770502   -0.465950
      3          1           0       -0.000000   -0.770502   -0.465950
 ---------------------------------------------------------------------

 SCF Done:  E(RM062X) =  -76.3837661896     A.U. after    1 cycles

 The electronic state is 1-A1.
 Alpha  occ. eigenvalues --  -19.65057  -1.13524  -0.61397  -0.46937  -0.39545
 Alpha virt. eigenvalues --    0.07053   0.14575   0.18120   0.18521   0.24682
 Alpha virt. eigenvalues --    0.28051   1.02757   1.11421   1.17476   1.19493
 Alpha virt. eigenvalues --    1.20804   1.29981   1.77412   1.78349   1.82006

 Mulliken charges:
               1
     1  O   -0.948104
     2  H    0.474052
     3  H    0.474052
 Sum of Mulliken charges =  -0.00000

 Dipole moment (field-independent basis, Debye):
    X=             -0.0000    Y=             -0.0000    Z=             -2.2713  Tot=              2.2713
 Quadrupole moment (field-independent basis, Debye-Ang):
   XX=             -7.8337   YY=             -4.2540   ZZ=             -6.4452
   XY=              0.0000   XZ=              0.0000   YZ=              0.0000

  Exact polarizability:       5.943       0.000       7.581      -0.000      -0.000       6.166
 Approx polarizability:       5.213       0.000       7.789       0.000      -0.000       5.985

                      1                      2                      3
                     A1                     A1                     B2
 Frequencies --   1667.1178              3811.4079              3934.6439
 Red. masses --      1.0831                 1.0448                 1.0832
 Frc consts  --      1.7736                 8.9422                 9.8800
 IR Inten    --    106.4997                12.5866                70.0790

 - Thermochemistry -
 -------------------
 Temperature   298.150 Kelvin.  Pressure   1.00000 Atm.
 Atom     1 has atomic number  8 and mass  15.99491

 Molecular mass:    18.01056 amu.
 Principal axes and moments of inertia in atomic units:
                           1         2         3
     Eigenvalues --     2.16853   4.27327   6.44180
           X           -0.00000   0.00000   1.00000
           Y            1.00000  -0.00000  -0.00000
           Z            0.00000   1.00000  -0.00000
 This molecule is an asymmetric top.
 Rotational symmetry number  2.
 Rotational temperatures (Kelvin)     39.94130    20.26879    13.44562
 Rotational constants (GHZ):         832.24169   422.33295   280.16116
 Zero-point vibrational energy      56303.3 (Joules/Mol)
                                   13.45680 (Kcal/Mol)
 Vibrational temperatures:   2398.61  5483.77  5661.07
          (Kelvin)

 Zero-point correction=                           0.021445 (Hartree/Particle)
 Thermal correction to Energy=                    0.024280
 Thermal correction to Enthalpy=                  0.025224
 Thermal correction to Gibbs Free Energy=         0.003794
 Sum of electronic and zero-point Energies=            -76.362321
 Sum of electronic and thermal Energies=               -76.359486
 Sum of electronic and thermal Enthalpies=             -76.358542
 Sum of electronic and thermal Free Energies=          -76.379972

                     E (Thermal)             CV                S
                      KCal/Mol        Cal/Mol-Kelvin    Cal/Mol-Kelvin
 Total                   15.236              6.003             45.103
 Electronic               0.000              0.000              0.000
 Translational            0.889              2.981             34.608
 Rotational               0.889              2.981             10.489
 Vibrational             13.458              0.041              0.006

 Optimization completed.
    -- Stationary point found.
 Normal termination of Gaussian 16 at Fri Apr 22 11:40:06 2022.
